###############################################################################
# Shein, I.R.;Ivanovskii, A.L. (2010)
# Solid State Communications 150, 152-156
# Electronic properties of novel 6 K superconductor Li Fe P in comparison \
# with Li Fe As from first principles calculations
# 
# CIF by ICSD-for-WWW,  Copyright 2003 FIZ-Karlsruhe & A.W.Hewat (hewat@ill.fr)
# NOT TO BE PUBLISHED IN ANY FORM. See http://icsd.ill.fr/icsd/conditions.html
###############################################################################

data_166457-ICSD
_database_code_ICSD                166457
_audit_creation_date               2010-08-01
_chemical_name_systematic
'Lithium iron arsenide'
_chemical_formula_structural       
'Li Fe As'
_chemical_formula_sum              
'As1 Fe1 Li1'
_publ_section_title                
'As1 Fe1 Li1'
loop_
_citation_id
_citation_journal_abbrev
_citation_year
_citation_journal_volume
_citation_page_first
_citation_page_last
_citation_journal_id_ASTM
primary 'Solid State Communications' 2010 150 152 156 SSCOA4
loop_
_publ_author_name
Shein, I.R.;Ivanovskii, A.L.
_cell_length_a                     3.791
_cell_length_b                     3.791
_cell_length_c                     6.364
_cell_angle_alpha                  90.
_cell_angle_beta                   90.
_cell_angle_gamma                  90.
_cell_volume                       91.461
_cell_formula_units_Z              2.000
_symmetry_space_group_name_H-M     'P 4/n m m'
_symmetry_Int_Tables_number        129
loop_
_symmetry_equiv_pos_site_id
_symmetry_equiv_pos_as_xyz
 1 'x,y,z'
 2 '1/2+x,-y,-z'
 3 'x,1/2-y,z'
 4 '-y,1/2+x,-z'
 5 '1/2-y,x,z'
 6 '1/2+y,1/2+x,-z'
 7 'y,x,z'
 8 '1/2+x,1/2+y,-z'
 9 '-x,-y,-z'
 10 '1/2-x,y,z'
 11 '-x,1/2+y,-z'
 12 'y,1/2-x,z'
 13 '1/2+y,-x,-z'
 14 '1/2-y,1/2-x,z'
 15 '-y,-x,-z'
 16 '1/2-x,1/2-y,z'
loop_
_atom_type_symbol
_atom_type_oxidation_number
Li1+     1.
Fe2+     2.
As3-     -3.
loop_
_atom_site_label
_atom_site_type_symbol
_atom_site_symmetry_multiplicity
_atom_site_Wyckoff_symbol
_atom_site_fract_x
_atom_site_fract_y
_atom_site_fract_z
_atom_site_B_iso_or_equiv
_atom_site_occupancy
Li1 Li1+ 2 c 0.250 0.250 0.8289 0. 1.
Fe1 Fe2+ 2 b 0.750 0.250 0.5 0. 1.
As1 As3- 2 c 0.250 0.250 0.2897 0. 1.
#End of data_166457-ICSD

