###############################################################################
# Qureshi, N.;Drees, Y.;Werner, J.;Wurmehl, S.;Hess, C.;Klingeler, R.;\
# Buechner, B.;Fernandez-Diaz, M.T.;Braden, M. (2010)
# Physical Review, Serie 3. B - Condensed Matter (18,1978-) 82, \
# 184521-1-184521-9
# Crystal and magnetic structure of the oxypnictide superconductor La Fe As \
# O1-x Fx: a neutron-diffraction study
# 
# CIF by ICSD-for-WWW,  Copyright 2003 FIZ-Karlsruhe & A.W.Hewat (hewat@ill.fr)
# NOT TO BE PUBLISHED IN ANY FORM. See http://icsd.ill.fr/icsd/conditions.html
###############################################################################

data_180441-ICSD
_database_code_ICSD                180441
_audit_creation_date               2012-02-01
_chemical_name_systematic
'Lanthanum iron arsenide oxide fluoride (1/1/1/0.85/0.15)'
_chemical_formula_structural       
'La Fe As (O0.85 F0.15)'
_chemical_formula_sum              
'As1 F0.15 Fe1 La1 O0.85'
_publ_section_title                
'As1 F0.15 Fe1 La1 O0.85'
loop_
_citation_id
_citation_journal_abbrev
_citation_year
_citation_journal_volume
_citation_page_first
_citation_page_last
_citation_journal_id_ASTM
primary 'Physical Review, Serie 3. B - Condensed ' 2010 82 184521-1 184521-9 PRBMDO
loop_
_publ_author_name
Qureshi, N.;Drees, Y.;Werner, J.;Wurmehl, S.;Hess, C.;Klingeler, R.;\
Buechner, B.;Fernandez-Diaz, M.T.;Braden, M.
_cell_length_a                     4.01739(3)
_cell_length_b                     4.01739(3)
_cell_length_c                     8.6610(1)
_cell_angle_alpha                  90.
_cell_angle_beta                   90.
_cell_angle_gamma                  90.
_cell_volume                       139.7802
_cell_formula_units_Z              2.000
_symmetry_space_group_name_H-M     'P 4/n m m'
_symmetry_Int_Tables_number        129
loop_
_symmetry_equiv_pos_site_id
_symmetry_equiv_pos_as_xyz
 1 'x,y,z'
 2 '1/2+x,-y,-z'
 3 'x,1/2-y,z'
 4 '-y,1/2+x,-z'
 5 '1/2-y,x,z'
 6 '1/2+y,1/2+x,-z'
 7 'y,x,z'
 8 '1/2+x,1/2+y,-z'
 9 '-x,-y,-z'
 10 '1/2-x,y,z'
 11 '-x,1/2+y,-z'
 12 'y,1/2-x,z'
 13 '1/2+y,-x,-z'
 14 '1/2-y,1/2-x,z'
 15 '-y,-x,-z'
 16 '1/2-x,1/2-y,z'
loop_
_atom_type_symbol
_atom_type_oxidation_number
La3+     3.
As3-     -3.
Fe1+5     1.85
O2-     -2.
F1-     -1.
loop_
_atom_site_label
_atom_site_type_symbol
_atom_site_symmetry_multiplicity
_atom_site_Wyckoff_symbol
_atom_site_fract_x
_atom_site_fract_y
_atom_site_fract_z
_atom_site_B_iso_or_equiv
_atom_site_occupancy
La1 La3+ 2 c 0.250 0.250 0.1450(3) 0.37(5) 1.
As1 As3- 2 c 0.250 0.250 0.6536(4) 0.18(6) 1.
Fe1 Fe1+5 2 b 0.750 0.250 0.5 0.27(4) 1.
O1 O2- 2 a 0.750 0.250 0 0.20(8) 0.85
F1 F1- 2 a 0.750 0.250 0 0.20(8) 0.15
#End of data_180441-ICSD

